 Gaussian 09, Revision B.01,
 Gaussian 09:  EM64L-G09RevB.01 12-Aug-2010

 -----------
 #P HF/6-31G
 -----------

 ----
 C2H4
 ----
 Symbolic Z-matrix:
 Charge =  0 Multiplicity = 1

                         Standard orientation:
 ---------------------------------------------------------------------
 Center     Atomic      Atomic             Coordinates (Angstroms)
 Number     Number       Type             X           Y           Z
 ---------------------------------------------------------------------
      1          6           0        0.000000    0.000000    0.665593
      2          6           0        0.000000    0.000000   -0.665593
      3          1           0        0.000000    0.921495    1.231668
      4          1           0        0.000000   -0.921495    1.231668
      5          1           0        0.000000    0.921495   -1.231668
      6          1           0        0.000000   -0.921495   -1.231668
 ---------------------------------------------------------------------

 SCF Done:  E(RHF) =  -78.0041586069     A.U. after    9 cycles

 The electronic state is 1-AG.
 Alpha  occ. eigenvalues --  -11.23192 -11.23025  -1.03507  -0.78916  -0.64177
 Alpha  occ. eigenvalues --   -0.58428  -0.49963  -0.37265
 Alpha virt. eigenvalues --    0.17511   0.26318   0.28928   0.30694   0.39032
 Alpha virt. eigenvalues --    0.48911   0.67865   0.78394   0.78671   0.88964
 Alpha virt. eigenvalues --    0.89409   0.99620   1.15241   1.19170   1.23266

 Mulliken atomic charges:
              1
     1  C   -0.327406
     2  C   -0.327406
     3  H    0.163703
     4  H    0.163703
     5  H    0.163703
     6  H    0.163703
 Sum of Mulliken atomic charges =   0.00000

 Dipole moment (field-independent basis, Debye):
    X=              0.0000    Y=              0.0000    Z=              0.0000  Tot=              0.0000
 Quadrupole moment (field-independent basis, Debye-Ang):
   XX=            -15.5785   YY=            -12.3154   ZZ=            -12.1660
   XY=              0.0000   XZ=              0.0000   YZ=              0.0000

 Normal termination of Gaussian 09 at Wed May 26 13:52:27 2021.
