 Gaussian 09, Revision B.01,
 Gaussian 09:  EM64L-G09RevB.01 12-Aug-2010

 -----------
 #P HF/6-31G
 -----------

 ----
 C2H5
 ----
 Symbolic Z-matrix:
 Charge =  0 Multiplicity = 2

                         Standard orientation:
 ---------------------------------------------------------------------
 Center     Atomic      Atomic             Coordinates (Angstroms)
 Number     Number       Type             X           Y           Z
 ---------------------------------------------------------------------
      1          6           0        0.794606    0.000006   -0.022395
      2          6           0       -0.695372    0.000170   -0.000460
      3          1           0       -1.103395    0.889592   -0.481056
      4          1           0        1.348473   -0.924049    0.048485
      5          1           0       -1.086039   -0.013327    1.024646
      6          1           0       -1.103825   -0.876718   -0.503574
      7          1           0        1.349384    0.923447    0.048633
 ---------------------------------------------------------------------

 SCF Done:  E(UHF) =  -78.5685756980     A.U. after   14 cycles

 The electronic state is 2-A.
 Alpha  occ. eigenvalues --  -11.22806 -11.21658  -1.03231  -0.84235  -0.61830
 Alpha  occ. eigenvalues --   -0.57474  -0.53892  -0.50043  -0.34861
 Alpha virt. eigenvalues --    0.25372   0.28196   0.29728   0.32797   0.36753
 Alpha virt. eigenvalues --    0.42261   0.73536   0.75374   0.76051   0.83407
 Alpha virt. eigenvalues --    0.88376   0.98675   1.06595   1.20475   1.20979

  Beta  occ. eigenvalues --  -11.22046 -11.20201  -0.99408  -0.78380  -0.60550
  Beta  occ. eigenvalues --   -0.54431  -0.52495  -0.49419
  Beta virt. eigenvalues --    0.16346   0.25912   0.30021   0.30231   0.33817
  Beta virt. eigenvalues --    0.37526   0.43601   0.74172   0.75663   0.82604
  Beta virt. eigenvalues --    0.90418   0.91977   0.99801   1.09540   1.21245

 Mulliken atomic charges:
              1
     1  C   -0.285491
     2  C   -0.496008
     3  H    0.161238
     4  H    0.148670
     5  H    0.161355
     6  H    0.161335
     7  H    0.148899
 Sum of Mulliken atomic charges =   0.00000

 Dipole moment (field-independent basis, Debye):
    X=             -0.1366    Y=              0.0001    Z=              0.1263  Tot=              0.1861
 Quadrupole moment (field-independent basis, Debye-Ang):
   XX=            -14.3119   YY=            -13.7425   ZZ=            -15.2091
   XY=              0.0010   XZ=              0.1790   YZ=              0.0002

 Normal termination of Gaussian 09 at Wed May 26 13:54:52 2021.
