 Gaussian 09, Revision B.01,
 Gaussian 09:  EM64L-G09RevB.01 12-Aug-2010

 -----------
 #P HF/6-31G
 -----------

 ----
 C2H6
 ----
 Symbolic Z-matrix:
 Charge =  0 Multiplicity = 1

                         Standard orientation:
 ---------------------------------------------------------------------
 Center     Atomic      Atomic             Coordinates (Angstroms)
 Number     Number       Type             X           Y           Z
 ---------------------------------------------------------------------
      1          6           0       -0.763092    0.000000    0.000000
      2          6           0        0.763092    0.000000    0.000000
      3          1           0        1.158312   -0.443642   -0.914097
      4          1           0       -1.158309   -1.013325   -0.074640
      5          1           0        1.158311   -0.569815    0.841253
      6          1           0        1.158308    1.013455    0.072848
      7          1           0       -1.158310    0.442020    0.914883
      8          1           0       -1.158310    0.571304   -0.840243
 ---------------------------------------------------------------------

 SCF Done:  E(RHF) =  -79.1974347629     A.U. after    8 cycles

 The electronic state is 1-A.
 Alpha  occ. eigenvalues --  -11.21283 -11.21226  -1.02219  -0.84542  -0.59726
 Alpha  occ. eigenvalues --   -0.59725  -0.50849  -0.48334  -0.48334
 Alpha virt. eigenvalues --    0.24069   0.29995   0.31358   0.31358   0.33626
 Alpha virt. eigenvalues --    0.33626   0.40721   0.73738   0.75969   0.75969
 Alpha virt. eigenvalues --    0.86399   0.86399   0.95611   1.21084   1.21084

 Mulliken atomic charges:
              1
     1  C   -0.452049
     2  C   -0.452050
     3  H    0.150683
     4  H    0.150683
     5  H    0.150683
     6  H    0.150683
     7  H    0.150683
     8  H    0.150683
 Sum of Mulliken atomic charges =   0.00000

 Dipole moment (field-independent basis, Debye):
    X=              0.0000    Y=              0.0000    Z=              0.0000  Tot=              0.0000
 Quadrupole moment (field-independent basis, Debye-Ang):
   XX=            -15.5700   YY=            -15.0704   ZZ=            -15.0704
   XY=              0.0000   XZ=              0.0000   YZ=              0.0000

 Normal termination of Gaussian 09 at Wed May 26 13:57:00 2021.
