 Gaussian 09, Revision B.01,
 Gaussian 09:  EM64L-G09RevB.01 12-Aug-2010

 -----------
 #P HF/6-31G
 -----------

 -----
 C4H4S
 -----
 Symbolic Z-matrix:
 Charge =  0 Multiplicity = 1

                         Standard orientation:
 ---------------------------------------------------------------------
 Center     Atomic      Atomic             Coordinates (Angstroms)
 Number     Number       Type             X           Y           Z
 ---------------------------------------------------------------------
      1         16           0        0.000000    0.000000    1.187831
      2          6           0        0.000000    1.232703   -0.005005
      3          6           0        0.000000   -1.232703   -0.005005
      4          6           0        0.000000    0.714381   -1.266442
      5          6           0        0.000000   -0.714381   -1.266442
      6          1           0        0.000000    2.269604    0.285211
      7          1           0        0.000000   -2.269604    0.285211
      8          1           0        0.000000    1.320216   -2.159177
      9          1           0        0.000000   -1.320216   -2.159177
 ---------------------------------------------------------------------

 SCF Done:  E(RHF) =  -551.185049240     A.U. after   12 cycles

 The electronic state is 1-A1.
 Alpha  occ. eigenvalues --  -91.97015 -11.26935 -11.26933 -11.24600 -11.24505
 Alpha  occ. eigenvalues --   -8.99198  -6.67341  -6.67191  -6.66915  -1.19016
 Alpha  occ. eigenvalues --   -0.99485  -0.99173  -0.76780  -0.75196  -0.70315
 Alpha  occ. eigenvalues --   -0.58200  -0.54964  -0.52597  -0.52426  -0.47014
 Alpha  occ. eigenvalues --   -0.34866  -0.33085
 Alpha virt. eigenvalues --    0.12915   0.20279   0.23523   0.24511   0.26672
 Alpha virt. eigenvalues --    0.29834   0.32194   0.32285   0.41893   0.46404
 Alpha virt. eigenvalues --    0.48733   0.54552   0.59756   0.63390   0.64375

 Mulliken atomic charges:
              1
     1  S    0.514937
     2  C   -0.581528
     3  C   -0.581528
     4  C   -0.127355
     5  C   -0.127355
     6  H    0.236895
     7  H    0.236895
     8  H    0.214520
     9  H    0.214520
 Sum of Mulliken atomic charges =   0.00000

 Dipole moment (field-independent basis, Debye):
    X=              0.0000    Y=              0.0000    Z=             -1.0719  Tot=              1.0719
 Quadrupole moment (field-independent basis, Debye-Ang):
   XX=            -41.0077   YY=            -31.3338   ZZ=            -35.8163
   XY=              0.0000   XZ=              0.0000   YZ=              0.0000

 Normal termination of Gaussian 09 at Wed May 26 13:59:09 2021.
