 Gaussian 09, Revision B.01,
 Gaussian 09:  EM64L-G09RevB.01 12-Aug-2010

 -----------
 #P HF/6-31G
 -----------

 --------
 C4H6_tra
 --------
 Symbolic Z-matrix:
 Charge =  0 Multiplicity = 1

                         Standard orientation:
 ---------------------------------------------------------------------
 Center     Atomic      Atomic             Coordinates (Angstroms)
 Number     Number       Type             X           Y           Z
 ---------------------------------------------------------------------
      1          6           0        0.607335    1.742556    0.000000
      2          6           0        0.607335    0.405970    0.000000
      3          6           0       -0.607335   -0.405970    0.000000
      4          6           0       -0.607335   -1.742556    0.000000
      5          1           0        1.527563    2.308517    0.000000
      6          1           0       -0.318336    2.304012    0.000000
      7          1           0        1.549807   -0.130754    0.000000
      8          1           0       -1.549807    0.130754    0.000000
      9          1           0        0.318336   -2.304012    0.000000
     10          1           0       -1.527563   -2.308517    0.000000
 ---------------------------------------------------------------------

 SCF Done:  E(RHF) =  -154.864039928     A.U. after   10 cycles

 The electronic state is 1-AG.
 Alpha  occ. eigenvalues --  -11.24211 -11.24133 -11.23018 -11.23018  -1.09295
 Alpha  occ. eigenvalues --   -1.00263  -0.82343  -0.75344  -0.64308  -0.63487
 Alpha  occ. eigenvalues --   -0.55451  -0.54042  -0.48675  -0.44139  -0.31791
 Alpha virt. eigenvalues --    0.12421   0.25508   0.25858   0.26763   0.27568
 Alpha virt. eigenvalues --    0.32991   0.34699   0.35941   0.49189   0.49480
 Alpha virt. eigenvalues --    0.57541   0.70570   0.73137   0.76221   0.82030

 Mulliken atomic charges:
              1
     1  C   -0.376620
     2  C   -0.140159
     3  C   -0.140159
     4  C   -0.376620
     5  H    0.167952
     6  H    0.165029
     7  H    0.183798
     8  H    0.183798
     9  H    0.165029
    10  H    0.167952
 Sum of Mulliken atomic charges =   0.00000

 Dipole moment (field-independent basis, Debye):
    X=              0.0000    Y=              0.0000    Z=              0.0000  Tot=              0.0000
 Quadrupole moment (field-independent basis, Debye-Ang):
   XX=            -22.9804   YY=            -23.1052   ZZ=            -29.0537
   XY=             -0.2159   XZ=              0.0000   YZ=              0.0000

 Normal termination of Gaussian 09 at Wed May 26 14:01:24 2021.
