 Gaussian 09, Revision B.01,
 Gaussian 09:  EM64L-G09RevB.01 12-Aug-2010

 -----------
 #P HF/6-31G
 -----------

 ----
 C6H6
 ----
 Symbolic Z-matrix:
 Charge =  0 Multiplicity = 1

                         Standard orientation:
 ---------------------------------------------------------------------
 Center     Atomic      Atomic             Coordinates (Angstroms)
 Number     Number       Type             X           Y           Z
 ---------------------------------------------------------------------
      1          6           0        0.000000    1.392000    0.000000
      2          6           0        1.205507    0.696000    0.000000
      3          6           0        1.205507   -0.696000    0.000000
      4          6           0        0.000000   -1.392000    0.000000
      5          6           0       -1.205507   -0.696000    0.000000
      6          6           0       -1.205507    0.696000    0.000000
      7          1           0        0.000000    2.473000    0.000000
      8          1           0        2.141681    1.236500    0.000000
      9          1           0        2.141681   -1.236500    0.000000
     10          1           0        0.000000   -2.473000    0.000000
     11          1           0       -2.141681   -1.236500    0.000000
     12          1           0       -2.141681    1.236500    0.000000
 ---------------------------------------------------------------------

 SCF Done:  E(RHF) =  -230.624132371     A.U. after    8 cycles

 The electronic state is 1-A1G.
 Alpha  occ. eigenvalues --  -11.23734 -11.23678 -11.23678 -11.23558 -11.23558
 Alpha  occ. eigenvalues --  -11.23500  -1.15326  -1.01512  -1.01512  -0.82198
 Alpha  occ. eigenvalues --   -0.82198  -0.71039  -0.63790  -0.61736  -0.58630
 Alpha  occ. eigenvalues --   -0.58630  -0.50000  -0.48722  -0.48722  -0.33358
 Alpha  occ. eigenvalues --   -0.33358
 Alpha virt. eigenvalues --    0.14695   0.14695   0.23370   0.29047   0.29047
 Alpha virt. eigenvalues --    0.33085   0.33085   0.33663   0.36325   0.47151
 Alpha virt. eigenvalues --    0.47151   0.49820   0.49820   0.68043   0.75425

 Mulliken atomic charges:
              1
     1  C   -0.199561
     2  C   -0.199561
     3  C   -0.199561
     4  C   -0.199561
     5  C   -0.199561
     6  C   -0.199561
     7  H    0.199561
     8  H    0.199561
     9  H    0.199561
    10  H    0.199561
    11  H    0.199561
    12  H    0.199561
 Sum of Mulliken atomic charges =   0.00000

 Dipole moment (field-independent basis, Debye):
    X=              0.0000    Y=              0.0000    Z=              0.0000  Tot=              0.0000
 Quadrupole moment (field-independent basis, Debye-Ang):
   XX=            -31.7232   YY=            -31.7232   ZZ=            -40.2907
   XY=              0.0000   XZ=              0.0000   YZ=              0.0000

 Normal termination of Gaussian 09 at Wed May 26 14:04:46 2021.
