 Gaussian 09, Revision B.01,
 Gaussian 09:  EM64L-G09RevB.01 12-Aug-2010

 -----------
 #P HF/6-31G
 -----------

 ---
 CCH
 ---
 Symbolic Z-matrix:
 Charge =  0 Multiplicity = 2

                         Standard orientation:
 ---------------------------------------------------------------------
 Center     Atomic      Atomic             Coordinates (Angstroms)
 Number     Number       Type             X           Y           Z
 ---------------------------------------------------------------------
      1          6           0        0.000000    0.000000   -0.475415
      2          6           0        0.000000    0.000000    0.731885
      3          1           0        0.000000    0.000000   -1.538815
 ---------------------------------------------------------------------

 SCF Done:  E(UHF) =  -76.1276744661     A.U. after   17 cycles

 The electronic state is 2-SG.
 Alpha  occ. eigenvalues --  -11.30483 -11.23731  -1.06299  -0.72733  -0.60458
 Alpha  occ. eigenvalues --   -0.45318  -0.45318
 Alpha virt. eigenvalues --    0.21002   0.21002   0.27814   0.49993   0.66446
 Alpha virt. eigenvalues --    0.72776   0.72776   0.84562   0.90340   0.90340
 Alpha virt. eigenvalues --    1.02971   1.45329   1.53508
  Beta  occ. eigenvalues --  -11.25947 -11.24636  -1.02973  -0.72352  -0.42437
  Beta  occ. eigenvalues --   -0.42437
  Beta virt. eigenvalues --    0.06117   0.25370   0.25370   0.26840   0.56251
  Beta virt. eigenvalues --    0.66460   0.74118   0.74118   0.91838   0.91838
  Beta virt. eigenvalues --    0.98563   1.00825   1.47089   1.56028

 Mulliken atomic charges:
              1
     1  C   -0.209873
     2  C   -0.083790
     3  H    0.293663
 Sum of Mulliken atomic charges =   0.00000

 Dipole moment (field-independent basis, Debye):
    X=              0.0000    Y=              0.0000    Z=             -0.6791  Tot=              0.6791
 Quadrupole moment (field-independent basis, Debye-Ang):
   XX=            -12.4828   YY=            -12.4828   ZZ=             -8.5247
   XY=              0.0000   XZ=              0.0000   YZ=              0.0000

 Normal termination of Gaussian 09 at Wed May 26 14:07:06 2021.
