 Gaussian 09, Revision B.01,
 Gaussian 09:  EM64L-G09RevB.01 12-Aug-2010

 -----------
 #P HF/6-31G
 -----------

 ----
 CCl4
 ----
 Symbolic Z-matrix:
 Charge =  0 Multiplicity = 1

                         Standard orientation:
 ---------------------------------------------------------------------
 Center     Atomic      Atomic             Coordinates (Angstroms)
 Number     Number       Type             X           Y           Z
 ---------------------------------------------------------------------
      1          6           0        0.000000    0.000000    0.000000
      2         17           0        1.020351    1.020351    1.020351
      3         17           0       -1.020351   -1.020351    1.020351
      4         17           0       -1.020351    1.020351   -1.020351
      5         17           0        1.020351   -1.020351   -1.020351
 ---------------------------------------------------------------------

 SCF Done:  E(RHF) =  -1875.61939996     A.U. after   10 cycles

 The electronic state is 1-A1.
 Alpha  occ. eigenvalues -- -104.87336-104.87336-104.87336-104.87334 -11.51072
 Alpha  occ. eigenvalues --  -10.61551 -10.61551 -10.61551 -10.61548  -8.08404
 Alpha  occ. eigenvalues --   -8.08403  -8.08403  -8.08403  -8.07898  -8.07898
 Alpha  occ. eigenvalues --   -8.07898  -8.07897  -8.07897  -8.07897  -8.07897
 Alpha  occ. eigenvalues --   -8.07897  -1.32234  -1.15084  -1.15084  -1.15084
 Alpha  occ. eigenvalues --   -0.84425  -0.67259  -0.67259  -0.67259  -0.54151
 Alpha  occ. eigenvalues --   -0.54151  -0.49594  -0.49594  -0.49594  -0.47597
 Alpha  occ. eigenvalues --   -0.47597  -0.47597
 Alpha virt. eigenvalues --    0.08476   0.14475   0.14475   0.14475   0.41091
 Alpha virt. eigenvalues --    0.50853   0.50853   0.50853   0.59907   0.59907
 Alpha virt. eigenvalues --    0.59907   0.61808   0.61940   0.61940   0.70850

 Mulliken atomic charges:
              1
     1  C   -0.819862
     2  Cl   0.204966
     3  Cl   0.204966
     4  Cl   0.204966
     5  Cl   0.204966
 Sum of Mulliken atomic charges =   0.00000

 Dipole moment (field-independent basis, Debye):
    X=              0.0000    Y=              0.0000    Z=              0.0000  Tot=              0.0000
 Quadrupole moment (field-independent basis, Debye-Ang):
   XX=            -57.3382   YY=            -57.3382   ZZ=            -57.3382
   XY=              0.0000   XZ=              0.0000   YZ=              0.0000

 Normal termination of Gaussian 09 at Wed May 26 14:08:55 2021.
