 Gaussian 09, Revision B.01,
 Gaussian 09:  EM64L-G09RevB.01 12-Aug-2010

 -----------
 #P HF/6-31G
 -----------

 ---
 CF4
 ---
 Symbolic Z-matrix:
 Charge =  0 Multiplicity = 1

                         Standard orientation:
 ---------------------------------------------------------------------
 Center     Atomic      Atomic             Coordinates (Angstroms)
 Number     Number       Type             X           Y           Z
 ---------------------------------------------------------------------
      1          6           0        0.000000    0.000000    0.000000
      2          9           0        0.759255    0.759255    0.759255
      3          9           0       -0.759255   -0.759255    0.759255
      4          9           0       -0.759255    0.759255   -0.759255
      5          9           0        0.759255   -0.759255   -0.759255
 ---------------------------------------------------------------------

 SCF Done:  E(RHF) =  -435.483801279     A.U. after    9 cycles

 The electronic state is 1-A1.
 Alpha  occ. eigenvalues --  -26.39925 -26.39925 -26.39925 -26.39923 -11.65359
 Alpha  occ. eigenvalues --   -1.85084  -1.70946  -1.70946  -1.70946  -1.02478
 Alpha  occ. eigenvalues --   -0.90802  -0.90802  -0.90802  -0.77641  -0.77641
 Alpha  occ. eigenvalues --   -0.71698  -0.71698  -0.71698  -0.70216  -0.70216
 Alpha  occ. eigenvalues --   -0.70216
 Alpha virt. eigenvalues --    0.37264   0.37264   0.37264   0.37333   0.68477
 Alpha virt. eigenvalues --    0.68477   0.68477   0.68991   1.32623   1.32623
 Alpha virt. eigenvalues --    1.46706   1.47316   1.47316   1.47316   1.64408

 Mulliken atomic charges:
              1
     1  C    1.373866
     2  F   -0.343467
     3  F   -0.343467
     4  F   -0.343467
     5  F   -0.343467
 Sum of Mulliken atomic charges =   0.00000

 Dipole moment (field-independent basis, Debye):
    X=              0.0000    Y=              0.0000    Z=              0.0000  Tot=              0.0000
 Quadrupole moment (field-independent basis, Debye-Ang):
   XX=            -26.4527   YY=            -26.4527   ZZ=            -26.4527
   XY=              0.0000   XZ=              0.0000   YZ=              0.0000

 Normal termination of Gaussian 09 at Wed May 26 14:12:52 2021.
