 Gaussian 09, Revision B.01,
 Gaussian 09:  EM64L-G09RevB.01 12-Aug-2010

 -----------
 #P HF/6-31G
 -----------

 -------
 CH2_1A1
 -------
 Symbolic Z-matrix:
 Charge =  0 Multiplicity = 1

                         Standard orientation:
 ---------------------------------------------------------------------
 Center     Atomic      Atomic             Coordinates (Angstroms)
 Number     Number       Type             X           Y           Z
 ---------------------------------------------------------------------
      1          6           0        0.000000    0.000000    0.174406
      2          1           0        0.000000    0.860427   -0.523217
      3          1           0        0.000000   -0.860427   -0.523217
 ---------------------------------------------------------------------

 SCF Done:  E(RHF) =  -38.8529935788     A.U. after    9 cycles

 The electronic state is 1-A1.
 Alpha  occ. eigenvalues --  -11.29199  -0.90162  -0.56077  -0.37983
 Alpha virt. eigenvalues --    0.06908   0.25420   0.31160   0.74200   0.79531
 Alpha virt. eigenvalues --    0.80568   0.99359   1.15538   1.17259

 Mulliken atomic charges:
              1
     1  C   -0.205854
     2  H    0.102927
     3  H    0.102927
 Sum of Mulliken atomic charges =   0.00000

 Dipole moment (field-independent basis, Debye):
    X=              0.0000    Y=              0.0000    Z=             -2.2225  Tot=              2.2225
 Quadrupole moment (field-independent basis, Debye-Ang):
   XX=             -6.1223   YY=             -7.2298   ZZ=             -9.4559
   XY=              0.0000   XZ=              0.0000   YZ=              0.0000

 Normal termination of Gaussian 09 at Wed May 26 14:14:42 2021.
