 Gaussian 09, Revision B.01,
 Gaussian 09:  EM64L-G09RevB.01 12-Aug-2010

 -----------
 #P HF/6-31G
 -----------

 -------
 CH2_3B1
 -------
 Symbolic Z-matrix:
 Charge =  0 Multiplicity = 3

                         Standard orientation:
 ---------------------------------------------------------------------
 Center     Atomic      Atomic             Coordinates (Angstroms)
 Number     Number       Type             X           Y           Z
 ---------------------------------------------------------------------
      1          6           0        0.000000    0.000000    0.105529
      2          1           0        0.000000    0.990531   -0.316586
      3          1           0        0.000000   -0.990531   -0.316586
 ---------------------------------------------------------------------

 SCF Done:  E(UHF) =  -38.9115805425     A.U. after   12 cycles

 The electronic state is 3-B1.
 Alpha  occ. eigenvalues --  -11.26155  -0.95059  -0.61743  -0.44710  -0.40858
 Alpha virt. eigenvalues --    0.25203   0.32573   0.72249   0.72939   0.79666
 Alpha virt. eigenvalues --    0.83137   1.18477   1.26400
  Beta  occ. eigenvalues --  -11.21167  -0.77039  -0.57908
  Beta virt. eigenvalues --    0.14950   0.17384   0.28425   0.36116   0.82712
  Beta virt. eigenvalues --    0.82989   0.89882   0.93483   1.22264   1.29209

 Mulliken atomic charges:
              1
     1  C   -0.304951
     2  H    0.152475
     3  H    0.152475
 Sum of Mulliken atomic charges =   0.00000

 Dipole moment (field-independent basis, Debye):
    X=              0.0000    Y=              0.0000    Z=             -0.5926  Tot=              0.5926
 Quadrupole moment (field-independent basis, Debye-Ang):
   XX=             -7.9106   YY=             -5.9079   ZZ=             -7.4961
   XY=              0.0000   XZ=              0.0000   YZ=              0.0000

 Normal termination of Gaussian 09 at Wed May 26 14:16:34 2021.
