 Gaussian 09, Revision B.01,
 Gaussian 09:  EM64L-G09RevB.01 12-Aug-2010

 -----------
 #P HF/6-31G
 -----------

 -----
 CH2CH
 -----
 Symbolic Z-matrix:
 Charge =  0 Multiplicity = 2

                         Standard orientation:
 ---------------------------------------------------------------------
 Center     Atomic      Atomic             Coordinates (Angstroms)
 Number     Number       Type             X           Y           Z
 ---------------------------------------------------------------------
      1          6           0        0.049472   -0.588013    0.000000
      2          6           0        0.049472    0.722106    0.000000
      3          1           0       -0.879340   -1.155468    0.000000
      4          1           0        0.968367   -1.161638    0.000000
      5          1           0       -0.682690    1.512553    0.000000
 ---------------------------------------------------------------------

 SCF Done:  E(UHF) =  -77.3649591399     A.U. after   17 cycles

 The electronic state is 2-A'.
 Alpha  occ. eigenvalues --  -11.25865 -11.22314  -1.05008  -0.78486  -0.63392
 Alpha  occ. eigenvalues --   -0.59614  -0.41060  -0.39700
 Alpha virt. eigenvalues --    0.18642   0.27324   0.28438   0.35139   0.49641
 Alpha virt. eigenvalues --    0.67915   0.76055   0.77965   0.79805   0.89714
 Alpha virt. eigenvalues --    0.95730   1.13118   1.20977   1.22993   1.31058

  Beta  occ. eigenvalues --  -11.23949 -11.21985  -1.01988  -0.73396  -0.60975
  Beta  occ. eigenvalues --   -0.56835  -0.39660
  Beta virt. eigenvalues --    0.14510   0.21312   0.27757   0.29658   0.36085
  Beta virt. eigenvalues --    0.52002   0.70487   0.76706   0.81331   0.90521
  Beta virt. eigenvalues --    0.90940   0.97175   1.13489   1.22392   1.23810

 Mulliken atomic charges:
              1
     1  C   -0.392620
     2  C   -0.135211
     3  H    0.170886
     4  H    0.178517
     5  H    0.178428
 Sum of Mulliken atomic charges =   0.00000

 Dipole moment (field-independent basis, Debye):
    X=             -0.5604    Y=             -0.2006    Z=              0.0000  Tot=              0.5952
 Quadrupole moment (field-independent basis, Debye-Ang):
   XX=            -12.2002   YY=            -11.5310   ZZ=            -14.5556
   XY=             -1.0382   XZ=              0.0000   YZ=              0.0000

 Normal termination of Gaussian 09 at Wed May 26 14:18:23 2021.
