 Gaussian 09, Revision B.01,
 Gaussian 09:  EM64L-G09RevB.01 12-Aug-2010

 -----------
 #P HF/6-31G
 -----------

 -----
 CH2OH
 -----
 Symbolic Z-matrix:
 Charge =  0 Multiplicity = 2

                         Standard orientation:
 ---------------------------------------------------------------------
 Center     Atomic      Atomic             Coordinates (Angstroms)
 Number     Number       Type             X           Y           Z
 ---------------------------------------------------------------------
      1          6           0        0.684147    0.027373   -0.064324
      2          8           0       -0.670131   -0.125210    0.022100
      3          1           0       -1.090512    0.730664   -0.062370
      4          1           0        1.113522    0.990542    0.169784
      5          1           0        1.233151   -0.883764    0.101729
 ---------------------------------------------------------------------

 SCF Done:  E(UHF) =  -114.361327072     A.U. after   14 cycles

 The electronic state is 2-A.
 Alpha  occ. eigenvalues --  -20.58458 -11.28309  -1.40663  -0.92996  -0.71684
 Alpha  occ. eigenvalues --   -0.62329  -0.60335  -0.51633  -0.34176
 Alpha virt. eigenvalues --    0.21412   0.26998   0.32775   0.40289   0.72807
 Alpha virt. eigenvalues --    0.80794   0.84220   0.93020   1.11598   1.18270
 Alpha virt. eigenvalues --    1.20643   1.21337   1.35325   1.51276   1.92302
  Beta  occ. eigenvalues --  -20.57800 -11.25686  -1.38416  -0.85773  -0.69919
  Beta  occ. eigenvalues --   -0.60823  -0.51761  -0.50088
  Beta virt. eigenvalues --    0.17510   0.21957   0.29008   0.34163   0.42609
  Beta virt. eigenvalues --    0.83068   0.85446   0.86316   0.95901   1.11889
  Beta virt. eigenvalues --    1.19573   1.22375   1.24479   1.35647   1.51818

 Mulliken atomic charges:
              1
     1  C   -0.015116
     2  O   -0.701734
     3  H    0.412416
     4  H    0.137463
     5  H    0.166971
 Sum of Mulliken atomic charges =   0.00000

 Dipole moment (field-independent basis, Debye):
    X=              0.6916    Y=              2.0034    Z=              0.1299  Tot=              2.1234
 Quadrupole moment (field-independent basis, Debye-Ang):
   XX=            -11.7049   YY=            -11.0217   ZZ=            -13.8903
   XY=             -2.5316   XZ=              0.6323   YZ=             -0.0346

 Normal termination of Gaussian 09 at Wed May 26 14:20:35 2021.
