 Gaussian 09, Revision B.01,
 Gaussian 09:  EM64L-G09RevB.01 12-Aug-2010

 -----------
 #P HF/6-31G
 -----------

 --------
 CH3CHCH3
 --------
 Symbolic Z-matrix:
 Charge =  0 Multiplicity = 2

                         Standard orientation:
 ---------------------------------------------------------------------
 Center     Atomic      Atomic             Coordinates (Angstroms)
 Number     Number       Type             X           Y           Z
 ---------------------------------------------------------------------
      1          6           0        0.012190    0.544357    0.000000
      2          6           0        0.012190   -0.200127    1.292190
      3          6           0        0.012190   -0.200127   -1.292190
      4          1           0       -0.261893    1.590668    0.000000
      5          1           0        0.204083    0.456060    2.140381
      6          1           0        0.204083    0.456060   -2.140381
      7          1           0       -0.951664   -0.694693    1.474338
      8          1           0        0.768819   -0.989012    1.292211
      9          1           0        0.768819   -0.989012   -1.292211
     10          1           0       -0.951664   -0.694693   -1.474338
 ---------------------------------------------------------------------

 SCF Done:  E(UHF) =  -117.591377629     A.U. after   14 cycles

 The electronic state is 2-A'.
 Alpha  occ. eigenvalues --  -11.22785 -11.21277 -11.21273  -1.06686  -0.93804
 Alpha  occ. eigenvalues --   -0.79211  -0.61956  -0.59867  -0.56236  -0.53454
 Alpha  occ. eigenvalues --   -0.49321  -0.48837  -0.32446
 Alpha virt. eigenvalues --    0.24413   0.27101   0.29031   0.32027   0.33422
 Alpha virt. eigenvalues --    0.33597   0.34594   0.41465   0.46247   0.72719
 Alpha virt. eigenvalues --    0.74451   0.76924   0.81514   0.83764   0.86854

  Beta  occ. eigenvalues --  -11.21666 -11.21665 -11.20121  -1.02618  -0.93890
  Beta  occ. eigenvalues --   -0.73990  -0.60955  -0.55904  -0.55319  -0.52522
  Beta  occ. eigenvalues --   -0.48744  -0.48037
  Beta virt. eigenvalues --    0.16592   0.24631   0.27763   0.29373   0.33639
  Beta virt. eigenvalues --    0.34195   0.34573   0.35078   0.43607   0.47355
  Beta virt. eigenvalues --    0.72831   0.74741   0.82085   0.83337   0.84677

 Mulliken atomic charges:
              1
     1  C   -0.105642
     2  C   -0.493585
     3  C   -0.493585
     4  H    0.151729
     5  H    0.159439
     6  H    0.159439
     7  H    0.154675
     8  H    0.156427
     9  H    0.156427
    10  H    0.154675
 Sum of Mulliken atomic charges =   0.00000

 Dipole moment (field-independent basis, Debye):
    X=             -0.1853    Y=             -0.0667    Z=              0.0000  Tot=              0.1970
 Quadrupole moment (field-independent basis, Debye-Ang):
   XX=            -21.7121   YY=            -20.8079   ZZ=            -20.9820
   XY=             -0.3688   XZ=              0.0000   YZ=              0.0000

 Normal termination of Gaussian 09 at Wed May 26 14:22:51 2021.
