 Gaussian 09, Revision B.01,
 Gaussian 09:  EM64L-G09RevB.01 12-Aug-2010

 -----------
 #P HF/6-31G
 -----------

 ------
 CH3CHO
 ------
 Symbolic Z-matrix:
 Charge =  0 Multiplicity = 1

                         Standard orientation:
 ---------------------------------------------------------------------
 Center     Atomic      Atomic             Coordinates (Angstroms)
 Number     Number       Type             X           Y           Z
 ---------------------------------------------------------------------
      1          8           0        1.203455    0.379374    0.000000
      2          6           0        0.000000    0.462284    0.000000
      3          1           0       -0.487781    1.453847    0.000000
      4          6           0       -0.933713   -0.714293    0.000000
      5          1           0       -0.376180   -1.646956    0.000000
      6          1           0       -1.580701   -0.664916    0.877721
      7          1           0       -1.580701   -0.664916   -0.877721
 ---------------------------------------------------------------------

 SCF Done:  E(RHF) =  -152.842726043     A.U. after   12 cycles

 The electronic state is 1-A'.
 Alpha  occ. eigenvalues --  -20.57549 -11.34936 -11.24436  -1.42017  -1.02853
 Alpha  occ. eigenvalues --   -0.80600  -0.67945  -0.62406  -0.60901  -0.56204
 Alpha  occ. eigenvalues --   -0.50081  -0.42366
 Alpha virt. eigenvalues --    0.14584   0.24302   0.27146   0.29772   0.29913
 Alpha virt. eigenvalues --    0.41301   0.44343   0.74816   0.78329   0.80640
 Alpha virt. eigenvalues --    0.81481   0.92579   0.98981   1.01229   1.14731

 Mulliken atomic charges:
              1
     1  O   -0.492136
     2  C    0.327222
     3  H    0.148285
     4  C   -0.560738
     5  H    0.205693
     6  H    0.185837
     7  H    0.185837
 Sum of Mulliken atomic charges =   0.00000

 Dipole moment (field-independent basis, Debye):
    X=             -3.3777    Y=             -0.1918    Z=              0.0000  Tot=              3.3831
 Quadrupole moment (field-independent basis, Debye-Ang):
   XX=            -22.1768   YY=            -17.8189   ZZ=            -18.0148
   XY=             -1.1323   XZ=              0.0000   YZ=              0.0000

 Normal termination of Gaussian 09 at Wed May 26 14:24:58 2021.
