 Gaussian 09, Revision B.01,
 Gaussian 09:  EM64L-G09RevB.01 12-Aug-2010

 -----------
 #P HF/6-31G
 -----------

 ---
 CH4
 ---
 Symbolic Z-matrix:
 Charge =  0 Multiplicity = 1

                         Standard orientation:
 ---------------------------------------------------------------------
 Center     Atomic      Atomic             Coordinates (Angstroms)
 Number     Number       Type             X           Y           Z
 ---------------------------------------------------------------------
      1          6           0        0.000000    0.000000    0.000000
      2          1           0        0.627837    0.627837    0.627837
      3          1           0       -0.627837   -0.627837    0.627837
      4          1           0        0.627837   -0.627837   -0.627837
      5          1           0       -0.627837    0.627837   -0.627837
 ---------------------------------------------------------------------

 SCF Done:  E(RHF) =  -40.1804763071     A.U. after    8 cycles

 The electronic state is 1-A1.
 Alpha  occ. eigenvalues --  -11.20628  -0.94690  -0.54367  -0.54367  -0.54367
 Alpha virt. eigenvalues --    0.25516   0.32389   0.32389   0.32389   0.74262
 Alpha virt. eigenvalues --    0.74262   0.74262   1.22792   1.22792   1.22792
 Alpha virt. eigenvalues --    1.24352   1.32785

 Mulliken atomic charges:
              1
     1  C   -0.621450
     2  H    0.155362
     3  H    0.155362
     4  H    0.155362
     5  H    0.155362
 Sum of Mulliken atomic charges =   0.00000

 Dipole moment (field-independent basis, Debye):
    X=              0.0000    Y=              0.0000    Z=              0.0000  Tot=              0.0000
 Quadrupole moment (field-independent basis, Debye-Ang):
   XX=             -8.4326   YY=             -8.4326   ZZ=             -8.4326
   XY=              0.0000   XZ=              0.0000   YZ=              0.0000

 Normal termination of Gaussian 09 at Wed May 26 14:26:44 2021.
