 Gaussian 09, Revision B.01,
 Gaussian 09:  EM64L-G09RevB.01 12-Aug-2010

 -----------
 #P HF/6-31G
 -----------

 -----
 CHCl3
 -----
 Symbolic Z-matrix:
 Charge =  0 Multiplicity = 1

                         Standard orientation:
 ---------------------------------------------------------------------
 Center     Atomic      Atomic             Coordinates (Angstroms)
 Number     Number       Type             X           Y           Z
 ---------------------------------------------------------------------
      1          6           0        0.000000    0.000000    0.459011
      2          1           0        0.000000    0.000000    1.539794
      3         17           0        0.000000    1.678496   -0.084193
      4         17           0        1.453620   -0.839248   -0.084193
      5         17           0       -1.453620   -0.839248   -0.084193
 ---------------------------------------------------------------------

 SCF Done:  E(RHF) =  -1416.77349029     A.U. after   11 cycles

 The electronic state is 1-A1.
 Alpha  occ. eigenvalues -- -104.85704-104.85704-104.85702 -11.44629 -10.59934
 Alpha  occ. eigenvalues --  -10.59934 -10.59932  -8.06787  -8.06786  -8.06786
 Alpha  occ. eigenvalues --   -8.06306  -8.06305  -8.06305  -8.06298  -8.06298
 Alpha  occ. eigenvalues --   -8.06297  -1.27521  -1.13290  -1.13290  -0.88908
 Alpha  occ. eigenvalues --   -0.69949  -0.63329  -0.63329  -0.51025  -0.51025
 Alpha  occ. eigenvalues --   -0.47558  -0.47558  -0.47427  -0.46287
 Alpha virt. eigenvalues --    0.11363   0.17336   0.17336   0.21676   0.46322
 Alpha virt. eigenvalues --    0.54542   0.54542   0.59404   0.61188   0.61188
 Alpha virt. eigenvalues --    0.62767   0.64167   0.64167   0.71961   0.80557

 Mulliken atomic charges:
              1
     1  C   -0.726071
     2  H    0.323350
     3  Cl   0.134240
     4  Cl   0.134240
     5  Cl   0.134240
 Sum of Mulliken atomic charges =   0.00000

 Dipole moment (field-independent basis, Debye):
    X=              0.0000    Y=              0.0000    Z=              1.6584  Tot=              1.6584
 Quadrupole moment (field-independent basis, Debye-Ang):
   XX=            -46.7247   YY=            -46.7247   ZZ=            -42.4240
   XY=              0.0000   XZ=              0.0000   YZ=              0.0000

 Normal termination of Gaussian 09 at Wed May 26 14:28:25 2021.
