 Gaussian 09, Revision B.01,
 Gaussian 09:  EM64L-G09RevB.01 12-Aug-2010

 -----------
 #P HF/6-31G
 -----------

 ----
 CHF3
 ----
 Symbolic Z-matrix:
 Charge =  0 Multiplicity = 1

                         Standard orientation:
 ---------------------------------------------------------------------
 Center     Atomic      Atomic             Coordinates (Angstroms)
 Number     Number       Type             X           Y           Z
 ---------------------------------------------------------------------
      1          6           0        0.000000    0.000000    0.337447
      2          1           0        0.000000    0.000000    1.423204
      3          9           0        0.000000    1.246011   -0.127700
      4          9           0        1.079077   -0.623006   -0.127700
      5          9           0       -1.079077   -0.623006   -0.127700
 ---------------------------------------------------------------------

 SCF Done:  E(RHF) =  -336.655617220     A.U. after   10 cycles

 The electronic state is 1-A1.
 Alpha  occ. eigenvalues --  -26.35538 -26.35538 -26.35537 -11.53513  -1.76433
 Alpha  occ. eigenvalues --   -1.65731  -1.65731  -1.00126  -0.86635  -0.83038
 Alpha  occ. eigenvalues --   -0.83038  -0.71435  -0.71435  -0.67052  -0.67052
 Alpha  occ. eigenvalues --   -0.66078  -0.60528
 Alpha virt. eigenvalues --    0.24070   0.32266   0.32266   0.41288   0.71002
 Alpha virt. eigenvalues --    0.71002   0.72048   0.92426   1.06053   1.39343
 Alpha virt. eigenvalues --    1.39343   1.51795   1.54301   1.54301   1.67580

 Mulliken atomic charges:
              1
     1  C    0.954865
     2  H    0.196167
     3  F   -0.383677
     4  F   -0.383677
     5  F   -0.383677
 Sum of Mulliken atomic charges =   0.00000

 Dipole moment (field-independent basis, Debye):
    X=              0.0000    Y=              0.0000    Z=              2.2414  Tot=              2.2414
 Quadrupole moment (field-independent basis, Debye-Ang):
   XX=            -23.2476   YY=            -23.2476   ZZ=            -18.0753
   XY=              0.0000   XZ=              0.0000   YZ=              0.0000

 Normal termination of Gaussian 09 at Wed May 26 14:31:42 2021.
