 Gaussian 09, Revision B.01,
 Gaussian 09:  EM64L-G09RevB.01 12-Aug-2010

 -----------
 #P HF/6-31G
 -----------

 ----
 ClF3
 ----
 Symbolic Z-matrix:
 Charge =  0 Multiplicity = 1

                         Standard orientation:
 ---------------------------------------------------------------------
 Center     Atomic      Atomic             Coordinates (Angstroms)
 Number     Number       Type             X           Y           Z
 ---------------------------------------------------------------------
      1         17           0        0.000000    0.000000    0.358383
      2          9           0        0.000000    0.000000   -1.234644
      3          9           0        0.000000    1.693676    0.278850
      4          9           0        0.000000   -1.693676    0.278850
 ---------------------------------------------------------------------

 SCF Done:  E(RHF) =  -757.323410654     A.U. after   13 cycles

 The electronic state is 1-A1.
 Alpha  occ. eigenvalues -- -105.14175 -26.44755 -26.29460 -26.29457 -10.86778
 Alpha  occ. eigenvalues --   -8.33296  -8.33186  -8.32642  -1.77171  -1.59771
 Alpha  occ. eigenvalues --   -1.59356  -1.21223  -0.83902  -0.83599  -0.81484
 Alpha  occ. eigenvalues --   -0.74605  -0.70685  -0.65609  -0.63423  -0.63200
 Alpha  occ. eigenvalues --   -0.55799  -0.51349
 Alpha virt. eigenvalues --    0.00520   0.10337   0.45202   0.51851   0.52026
 Alpha virt. eigenvalues --    0.56921   1.26195   1.40792   1.44969   1.50329
 Alpha virt. eigenvalues --    1.57765   1.58009   1.60387   1.62240   1.74867

 Mulliken atomic charges:
              1
     1  Cl   1.423331
     2  F   -0.321778
     3  F   -0.550776
     4  F   -0.550776
 Sum of Mulliken atomic charges =   0.00000

 Dipole moment (field-independent basis, Debye):
    X=              0.0000    Y=              0.0000    Z=              0.9551  Tot=              0.9551
 Quadrupole moment (field-independent basis, Debye-Ang):
   XX=            -25.3373   YY=            -37.6709   ZZ=            -25.9116
   XY=              0.0000   XZ=              0.0000   YZ=              0.0000

 Normal termination of Gaussian 09 at Wed May 26 14:34:40 2021.
