 Gaussian 09, Revision B.01,
 Gaussian 09:  EM64L-G09RevB.01 12-Aug-2010

 -----------
 #P HF/6-31G
 -----------

 ---
 CO2
 ---
 Symbolic Z-matrix:
 Charge =  0 Multiplicity = 1

                         Standard orientation:
 ---------------------------------------------------------------------
 Center     Atomic      Atomic             Coordinates (Angstroms)
 Number     Number       Type             X           Y           Z
 ---------------------------------------------------------------------
      1          6           0        0.000000    0.000000    0.000000
      2          8           0        0.000000    0.000000    1.159485
      3          8           0        0.000000    0.000000   -1.159485
 ---------------------------------------------------------------------

 SCF Done:  E(RHF) =  -187.514942995     A.U. after   10 cycles

 The electronic state is 1-SGG.
 Alpha  occ. eigenvalues --  -20.68015 -20.68006 -11.50551  -1.56858  -1.51834
 Alpha  occ. eigenvalues --   -0.79538  -0.73820  -0.73446  -0.73446  -0.53762
 Alpha  occ. eigenvalues --   -0.53762
 Alpha virt. eigenvalues --    0.18202   0.18202   0.23721   0.51488   0.65274
 Alpha virt. eigenvalues --    0.65274   0.86116   0.98344   1.12068   1.16169
 Alpha virt. eigenvalues --    1.16169   1.32786   1.32786   1.41405   1.92453

 Mulliken atomic charges:
              1
     1  C    0.861230
     2  O   -0.430615
     3  O   -0.430615
 Sum of Mulliken atomic charges =   0.00000

 Dipole moment (field-independent basis, Debye):
    X=              0.0000    Y=              0.0000    Z=              0.0000  Tot=              0.0000
 Quadrupole moment (field-independent basis, Debye-Ang):
   XX=            -14.7234   YY=            -14.7234   ZZ=            -22.0277
   XY=              0.0000   XZ=              0.0000   YZ=              0.0000

 Normal termination of Gaussian 09 at Wed May 26 14:36:42 2021.
