 Gaussian 09, Revision B.01,
 Gaussian 09:  EM64L-G09RevB.01 12-Aug-2010

 -----------
 #P HF/6-31G
 -----------

 ---
 H2O
 ---
 Symbolic Z-matrix:
 Charge =  0 Multiplicity = 1

                         Standard orientation:
 ---------------------------------------------------------------------
 Center     Atomic      Atomic             Coordinates (Angstroms)
 Number     Number       Type             X           Y           Z
 ---------------------------------------------------------------------
      1          8           0        0.000000    0.000000    0.117145
      2          1           0        0.000000    0.756709   -0.468582
      3          1           0        0.000000   -0.756709   -0.468582
 ---------------------------------------------------------------------

 SCF Done:  E(RHF) =  -75.9839996633     A.U. after   10 cycles

 The electronic state is 1-A1.
 Alpha  occ. eigenvalues --  -20.56032  -1.35655  -0.71039  -0.56067  -0.50140
 Alpha virt. eigenvalues --    0.20385   0.29997   1.05778   1.16446   1.18789
 Alpha virt. eigenvalues --    1.21554   1.37968   1.69609

 Mulliken atomic charges:
              1
     1  O   -0.791727
     2  H    0.395864
     3  H    0.395864
 Sum of Mulliken atomic charges =   0.00000

 Dipole moment (field-independent basis, Debye):
    X=              0.0000    Y=              0.0000    Z=             -2.6300  Tot=              2.6300
 Quadrupole moment (field-independent basis, Debye-Ang):
   XX=             -7.2050   YY=             -4.2102   ZZ=             -6.1430
   XY=              0.0000   XZ=              0.0000   YZ=              0.0000

 Normal termination of Gaussian 09 at Wed May 26 14:39:44 2021.
