 Gaussian 09, Revision B.01,
 Gaussian 09:  EM64L-G09RevB.01 12-Aug-2010

 -----------
 #P HF/6-31G
 -----------

 ----
 H2O2
 ----
 Symbolic Z-matrix:
 Charge =  0 Multiplicity = 1

                         Standard orientation:
 ---------------------------------------------------------------------
 Center     Atomic      Atomic             Coordinates (Angstroms)
 Number     Number       Type             X           Y           Z
 ---------------------------------------------------------------------
      1          8           0        0.000000    0.719920   -0.057139
      2          8           0        0.000000   -0.719920   -0.057139
      3          1           0        0.792624    0.897082    0.457109
      4          1           0       -0.792624   -0.897082    0.457109
 ---------------------------------------------------------------------

 SCF Done:  E(RHF) =  -150.707945070     A.U. after   11 cycles

 The electronic state is 1-A.
 Alpha  occ. eigenvalues --  -20.63733 -20.63706  -1.49877  -1.22507  -0.71550
 Alpha  occ. eigenvalues --   -0.70788  -0.60837  -0.51567  -0.48713
 Alpha virt. eigenvalues --    0.20305   0.21042   0.30453   1.07458   1.08543
 Alpha virt. eigenvalues --    1.11995   1.13048   1.24577   1.28323   1.33259
 Alpha virt. eigenvalues --    1.34403   1.69032   1.88689

 Mulliken atomic charges:
              1
     1  O   -0.436430
     2  O   -0.436430
     3  H    0.436430
     4  H    0.436430
 Sum of Mulliken atomic charges =   0.00000

 Dipole moment (field-independent basis, Debye):
    X=              0.0000    Y=              0.0000    Z=              2.4039  Tot=              2.4039
 Quadrupole moment (field-independent basis, Debye-Ang):
   XX=             -9.3778   YY=            -11.7169   ZZ=            -11.5490
   XY=              3.5033   XZ=              0.0000   YZ=              0.0000

 Normal termination of Gaussian 09 at Wed May 26 14:38:01 2021.
