 Gaussian 09, Revision B.01,
 Gaussian 09:  EM64L-G09RevB.01 12-Aug-2010

 -----------
 #P HF/6-31G
 -----------

 ---
 HCO
 ---
 Symbolic Z-matrix:
 Charge =  0 Multiplicity = 2

                         Standard orientation:
 ---------------------------------------------------------------------
 Center     Atomic      Atomic             Coordinates (Angstroms)
 Number     Number       Type             X           Y           Z
 ---------------------------------------------------------------------
      1          6           0        0.060862    0.584667    0.000000
      2          8           0        0.060862   -0.591942    0.000000
      3          1           0       -0.852072    1.227534    0.000000
 ---------------------------------------------------------------------

 SCF Done:  E(UHF) =  -113.185596839     A.U. after   18 cycles

 The electronic state is 2-A'.
 Alpha  occ. eigenvalues --  -20.63309 -11.37551  -1.48452  -0.86260  -0.71339
 Alpha  occ. eigenvalues --   -0.64774  -0.56639  -0.38867
 Alpha virt. eigenvalues --    0.12087   0.25829   0.37758   0.69820   0.71691
 Alpha virt. eigenvalues --    0.85158   0.99184   1.08471   1.21198   1.25306
 Alpha virt. eigenvalues --    1.27758   1.86523
  Beta  occ. eigenvalues --  -20.62596 -11.35256  -1.46222  -0.79974  -0.66290
  Beta  occ. eigenvalues --   -0.58197  -0.52505
  Beta virt. eigenvalues --    0.10436   0.14961   0.29363   0.39831   0.75049
  Beta virt. eigenvalues --    0.79492   0.88511   1.01332   1.12184   1.23165
  Beta virt. eigenvalues --    1.23451   1.32162   1.87313

 Mulliken atomic charges:
              1
     1  C    0.237946
     2  O   -0.411917
     3  H    0.173971
 Sum of Mulliken atomic charges =   0.00000

 Dipole moment (field-independent basis, Debye):
    X=             -0.9793    Y=              2.2605    Z=              0.0000  Tot=              2.4635
 Quadrupole moment (field-independent basis, Debye-Ang):
   XX=            -11.2115   YY=            -11.8469   ZZ=            -10.7979
   XY=             -0.9721   XZ=              0.0000   YZ=              0.0000

 Normal termination of Gaussian 09 at Wed May 26 14:44:16 2021.
