 Gaussian 09, Revision B.01,
 Gaussian 09:  EM64L-G09RevB.01 12-Aug-2010

 -----------
 #P HF/6-31G
 -----------

 ------
 HCOCOH
 ------
 Symbolic Z-matrix:
 Charge =  0 Multiplicity = 1

                         Standard orientation:
 ---------------------------------------------------------------------
 Center     Atomic      Atomic             Coordinates (Angstroms)
 Number     Number       Type             X           Y           Z
 ---------------------------------------------------------------------
      1          6           0       -0.328297    0.685830    0.000000
      2          6           0        0.328297   -0.685830    0.000000
      3          8           0        0.328297    1.694681    0.000000
      4          1           0       -1.429047    0.677008    0.000000
      5          8           0       -0.328297   -1.694681    0.000000
      6          1           0        1.429047   -0.677008    0.000000
 ---------------------------------------------------------------------

 SCF Done:  E(RHF) =  -226.474919144     A.U. after   11 cycles

 The electronic state is 1-AG.
 Alpha  occ. eigenvalues --  -20.62726 -20.62725 -11.38137 -11.38078  -1.47480
 Alpha  occ. eigenvalues --   -1.45760  -0.97373  -0.83557  -0.72061  -0.70693
 Alpha  occ. eigenvalues --   -0.65791  -0.60311  -0.53124  -0.53107  -0.43815
 Alpha virt. eigenvalues --    0.03906   0.20264   0.24091   0.28190   0.33908
 Alpha virt. eigenvalues --    0.44265   0.48040   0.70315   0.77821   0.78471
 Alpha virt. eigenvalues --    0.82741   0.92585   0.96389   1.04649   1.10743

 Mulliken atomic charges:
              1
     1  C    0.239518
     2  C    0.239518
     3  O   -0.452747
     4  H    0.213229
     5  O   -0.452747
     6  H    0.213229
 Sum of Mulliken atomic charges =   0.00000

 Dipole moment (field-independent basis, Debye):
    X=              0.0000    Y=              0.0000    Z=              0.0000  Tot=              0.0000
 Quadrupole moment (field-independent basis, Debye-Ang):
   XX=            -20.9147   YY=            -33.5996   ZZ=            -21.4081
   XY=             -4.3122   XZ=              0.0000   YZ=              0.0000

 Normal termination of Gaussian 09 at Wed May 26 14:42:21 2021.
