 Gaussian 09, Revision B.01,
 Gaussian 09:  EM64L-G09RevB.01 12-Aug-2010

 -----------
 #P HF/6-31G
 -----------

 ----
 HOCl
 ----
 Symbolic Z-matrix:
 Charge =  0 Multiplicity = 1

                         Standard orientation:
 ---------------------------------------------------------------------
 Center     Atomic      Atomic             Coordinates (Angstroms)
 Number     Number       Type             X           Y           Z
 ---------------------------------------------------------------------
      1          8           0        0.035991    1.095331    0.000000
      2          1           0       -0.899781    1.318894    0.000000
      3         17           0        0.035991   -0.593032    0.000000
 ---------------------------------------------------------------------

 SCF Done:  E(RHF) =  -534.787964449     A.U. after   12 cycles

 The electronic state is 1-A'.
 Alpha  occ. eigenvalues -- -104.87309 -20.65286 -10.61178  -8.08078  -8.07516
 Alpha  occ. eigenvalues --   -8.07487  -1.43311  -1.07047  -0.71807  -0.61819
 Alpha  occ. eigenvalues --   -0.58945  -0.47356  -0.45116
 Alpha virt. eigenvalues --    0.09968   0.22914   0.55516   0.61249   0.61822
 Alpha virt. eigenvalues --    0.62346   1.08748   1.14598   1.21466   1.35586
 Alpha virt. eigenvalues --    1.68306

 Mulliken atomic charges:
              1
     1  O   -0.684797
     2  H    0.442362
     3  Cl   0.242434
 Sum of Mulliken atomic charges =   0.00000

 Dipole moment (field-independent basis, Debye):
    X=             -2.2046    Y=              0.0687    Z=              0.0000  Tot=              2.2056
 Quadrupole moment (field-independent basis, Debye-Ang):
   XX=            -16.9335   YY=            -17.4898   ZZ=            -19.1052
   XY=             -3.0848   XZ=              0.0000   YZ=              0.0000

 Normal termination of Gaussian 09 at Wed May 26 14:45:45 2021.
