 Gaussian 09, Revision B.01,
 Gaussian 09:  EM64L-G09RevB.01 12-Aug-2010

 -----------
 #P HF/6-31G
 -----------

 ---
 NH2
 ---
 Symbolic Z-matrix:
 Charge =  0 Multiplicity = 2

                         Standard orientation:
 ---------------------------------------------------------------------
 Center     Atomic      Atomic             Coordinates (Angstroms)
 Number     Number       Type             X           Y           Z
 ---------------------------------------------------------------------
      1          7           0        0.000000    0.000000    0.141415
      2          1           0        0.000000    0.802314   -0.494954
      3          1           0        0.000000   -0.802314   -0.494954
 ---------------------------------------------------------------------

 SCF Done:  E(UHF) =  -55.5322440242     A.U. after   12 cycles

 The electronic state is 2-B1.
 Alpha  occ. eigenvalues --  -15.60022  -1.17659  -0.64705  -0.50903  -0.49526
 Alpha virt. eigenvalues --    0.21278   0.29942   0.87940   0.91877   0.96684
 Alpha virt. eigenvalues --    1.14909   1.19167   1.32863
  Beta  occ. eigenvalues --  -15.56748  -1.05357  -0.62077  -0.44199
  Beta virt. eigenvalues --    0.13855   0.22782   0.31168   0.92067   0.99295
  Beta virt. eigenvalues --    1.05501   1.16283   1.21141   1.37541

 Mulliken atomic charges:
              1
     1  N   -0.563984
     2  H    0.281992
     3  H    0.281992
 Sum of Mulliken atomic charges =   0.00000

 Dipole moment (field-independent basis, Debye):
    X=              0.0000    Y=              0.0000    Z=             -2.4646  Tot=              2.4646
 Quadrupole moment (field-independent basis, Debye-Ang):
   XX=             -6.9391   YY=             -5.5466   ZZ=             -7.5865
   XY=              0.0000   XZ=              0.0000   YZ=              0.0000

 Normal termination of Gaussian 09 at Wed May 26 14:47:31 2021.
