 Gaussian 09, Revision B.01,
 Gaussian 09:  EM64L-G09RevB.01 12-Aug-2010

 -----------
 #P HF/6-31G
 -----------

 ------
 NH2NH2
 ------
 Symbolic Z-matrix:
 Charge =  0 Multiplicity = 1

                         Standard orientation:
 ---------------------------------------------------------------------
 Center     Atomic      Atomic             Coordinates (Angstroms)
 Number     Number       Type             X           Y           Z
 ---------------------------------------------------------------------
      1          7           0        0.000000    0.716918   -0.075134
      2          7           0        0.000000   -0.716918   -0.075134
      3          1           0        0.222317    1.091387    0.838343
      4          1           0       -0.933469    1.017621   -0.312407
      5          1           0       -0.222317   -1.091387    0.838343
      6          1           0        0.933469   -1.017621   -0.312407
 ---------------------------------------------------------------------

 SCF Done:  E(RHF) =  -111.118500035     A.U. after   10 cycles

 The electronic state is 1-A.
 Alpha  occ. eigenvalues --  -15.57100 -15.57060  -1.26701  -1.01852  -0.67646
 Alpha  occ. eigenvalues --   -0.66823  -0.60305  -0.41058  -0.40301
 Alpha virt. eigenvalues --    0.21452   0.24762   0.30248   0.32646   0.43177
 Alpha virt. eigenvalues --    0.95055   0.95217   0.97318   1.00102   1.02673
 Alpha virt. eigenvalues --    1.13489   1.20501   1.23622   1.25285   1.27169

 Mulliken atomic charges:
              1
     1  N   -0.633584
     2  N   -0.633584
     3  H    0.300155
     4  H    0.333429
     5  H    0.300155
     6  H    0.333429
 Sum of Mulliken atomic charges =   0.00000

 Dipole moment (field-independent basis, Debye):
    X=              0.0000    Y=              0.0000    Z=              2.6791  Tot=              2.6791
 Quadrupole moment (field-independent basis, Debye-Ang):
   XX=            -12.2113   YY=            -13.1478   ZZ=            -12.9992
   XY=             -3.2299   XZ=              0.0000   YZ=              0.0000

 Normal termination of Gaussian 09 at Wed May 26 14:51:11 2021.
