 Gaussian 09, Revision B.01,
 Gaussian 09:  EM64L-G09RevB.01 12-Aug-2010

 -----------
 #P HF/6-31G
 -----------

 -----
 Si2H6
 -----
 Symbolic Z-matrix:
 Charge =  0 Multiplicity = 1

                         Standard orientation:
 ---------------------------------------------------------------------
 Center     Atomic      Atomic             Coordinates (Angstroms)
 Number     Number       Type             X           Y           Z
 ---------------------------------------------------------------------
      1         14           0        0.000000    0.000000    1.170305
      2         14           0        0.000000    0.000000   -1.170305
      3          1           0        0.000000    1.388110    1.685486
      4          1           0       -1.202138   -0.694055    1.685486
      5          1           0        1.202138   -0.694055    1.685486
      6          1           0        0.000000   -1.388110   -1.685486
      7          1           0       -1.202138    0.694055   -1.685486
      8          1           0        1.202138    0.694055   -1.685486
 ---------------------------------------------------------------------

 SCF Done:  E(RHF) =  -581.214815059     A.U. after    8 cycles

 The electronic state is 1-A1G.
 Alpha  occ. eigenvalues --  -68.76825 -68.76823  -6.14011  -6.13998  -4.24489
 Alpha  occ. eigenvalues --   -4.24469  -4.24469  -4.24461  -4.24461  -4.24424
 Alpha  occ. eigenvalues --   -0.77528  -0.69187  -0.50073  -0.50073  -0.46767
 Alpha  occ. eigenvalues --   -0.46767  -0.40331
 Alpha virt. eigenvalues --    0.13337   0.14797   0.14797   0.21140   0.21140
 Alpha virt. eigenvalues --    0.22161   0.27777   0.29420   0.36594   0.36594
 Alpha virt. eigenvalues --    0.40286   0.40286   0.41529   0.43443   0.57531

 Mulliken atomic charges:
              1
     1  Si   0.515466
     2  Si   0.515466
     3  H   -0.171822
     4  H   -0.171822
     5  H   -0.171822
     6  H   -0.171822
     7  H   -0.171822
     8  H   -0.171822
 Sum of Mulliken atomic charges =   0.00000

 Dipole moment (field-independent basis, Debye):
    X=              0.0000    Y=              0.0000    Z=              0.0000  Tot=              0.0000
 Quadrupole moment (field-independent basis, Debye-Ang):
   XX=            -32.6450   YY=            -32.6450   ZZ=            -33.9782
   XY=              0.0000   XZ=              0.0000   YZ=              0.0000

 Normal termination of Gaussian 09 at Wed May 26 14:53:01 2021.
