 Gaussian 09, Revision B.01,
 Gaussian 09:  EM64L-G09RevB.01 12-Aug-2010

 -----------
 #P HF/6-31G
 -----------

 -----
 SiCl4
 -----
 Symbolic Z-matrix:
 Charge =  0 Multiplicity = 1

                         Standard orientation:
 ---------------------------------------------------------------------
 Center     Atomic      Atomic             Coordinates (Angstroms)
 Number     Number       Type             X           Y           Z
 ---------------------------------------------------------------------
      1         14           0        0.000000    0.000000    0.000000
      2         17           0        1.168095    1.168095    1.168095
      3         17           0       -1.168095   -1.168095    1.168095
      4         17           0        1.168095   -1.168095   -1.168095
      5         17           0       -1.168095    1.168095   -1.168095
 ---------------------------------------------------------------------

 SCF Done:  E(RHF) =  -2126.84943609     A.U. after    9 cycles

 The electronic state is 1-A1.
 Alpha  occ. eigenvalues -- -104.86648-104.86646-104.86646-104.86646 -68.99999
 Alpha  occ. eigenvalues --  -10.61195 -10.61195 -10.61195 -10.61195  -8.08038
 Alpha  occ. eigenvalues --   -8.08038  -8.08038  -8.08038  -8.07569  -8.07569
 Alpha  occ. eigenvalues --   -8.07569  -8.07569  -8.07569  -8.07569  -8.07568
 Alpha  occ. eigenvalues --   -8.07568  -6.36583  -4.47027  -4.47027  -4.47027
 Alpha  occ. eigenvalues --   -1.23229  -1.15814  -1.15814  -1.15814  -0.75867
 Alpha  occ. eigenvalues --   -0.62604  -0.62604  -0.62604  -0.54147  -0.54147
 Alpha  occ. eigenvalues --   -0.51681  -0.51681  -0.51681  -0.50119  -0.50119
 Alpha  occ. eigenvalues --   -0.50119
 Alpha virt. eigenvalues --    0.07138   0.13473   0.13473   0.13473   0.23994
 Alpha virt. eigenvalues --    0.33210   0.33210   0.33210   0.56530   0.56530
 Alpha virt. eigenvalues --    0.58093   0.58093   0.58093   0.58257   0.70256

 Mulliken atomic charges:
              1
     1  Si   0.921427
     2  Cl  -0.230357
     3  Cl  -0.230357
     4  Cl  -0.230357
     5  Cl  -0.230357
 Sum of Mulliken atomic charges =   0.00000

 Dipole moment (field-independent basis, Debye):
    X=              0.0000    Y=              0.0000    Z=              0.0000  Tot=              0.0000
 Quadrupole moment (field-independent basis, Debye-Ang):
   XX=            -68.9144   YY=            -68.9144   ZZ=            -68.9144
   XY=              0.0000   XZ=              0.0000   YZ=              0.0000

 Normal termination of Gaussian 09 at Wed May 26 14:55:47 2021.
