 Gaussian 09, Revision B.01,
 Gaussian 09:  EM64L-G09RevB.01 12-Aug-2010

 -----------
 #P HF/6-31G
 -----------

 ----
 SiF4
 ----
 Symbolic Z-matrix:
 Charge =  0 Multiplicity = 1

                         Standard orientation:
 ---------------------------------------------------------------------
 Center     Atomic      Atomic             Coordinates (Angstroms)
 Number     Number       Type             X           Y           Z
 ---------------------------------------------------------------------
      1         14           0        0.000000    0.000000    0.000000
      2          9           0        0.897549    0.897549    0.897549
      3          9           0       -0.897549   -0.897549    0.897549
      4          9           0       -0.897549    0.897549   -0.897549
      5          9           0        0.897549   -0.897549   -0.897549
 ---------------------------------------------------------------------

 SCF Done:  E(RHF) =  -686.717150196     A.U. after    9 cycles

 The electronic state is 1-A1.
 Alpha  occ. eigenvalues --  -69.06481 -26.36518 -26.36517 -26.36517 -26.36517
 Alpha  occ. eigenvalues --   -6.41571  -4.52314  -4.52314  -4.52314  -1.72059
 Alpha  occ. eigenvalues --   -1.67320  -1.67320  -1.67320  -0.88424  -0.80330
 Alpha  occ. eigenvalues --   -0.80330  -0.80330  -0.74246  -0.74246  -0.71666
 Alpha  occ. eigenvalues --   -0.71666  -0.71666  -0.70301  -0.70301  -0.70301
 Alpha virt. eigenvalues --    0.12380   0.20470   0.20470   0.20470   0.39220
 Alpha virt. eigenvalues --    0.44370   0.44370   0.44370   1.30804   1.30804
 Alpha virt. eigenvalues --    1.51013   1.51013   1.51013   1.54118   1.54118

 Mulliken atomic charges:
              1
     1  Si   2.217559
     2  F   -0.554390
     3  F   -0.554390
     4  F   -0.554390
     5  F   -0.554390
 Sum of Mulliken atomic charges =   0.00000

 Dipole moment (field-independent basis, Debye):
    X=              0.0000    Y=              0.0000    Z=              0.0000  Tot=              0.0000
 Quadrupole moment (field-independent basis, Debye-Ang):
   XX=            -35.0261   YY=            -35.0261   ZZ=            -35.0261
   XY=              0.0000   XZ=              0.0000   YZ=              0.0000

 Normal termination of Gaussian 09 at Wed May 26 14:57:44 2021.
