 Gaussian 09, Revision B.01,
 Gaussian 09:  EM64L-G09RevB.01 12-Aug-2010

 -----------
 #P HF/6-31G
 -----------

 --------
 SiH2_3B1
 --------
 Symbolic Z-matrix:
 Charge =  0 Multiplicity = 3

                         Standard orientation:
 ---------------------------------------------------------------------
 Center     Atomic      Atomic             Coordinates (Angstroms)
 Number     Number       Type             X           Y           Z
 ---------------------------------------------------------------------
      1         14           0        0.000000    0.000000    0.094690
      2          1           0        0.000000    1.269462   -0.662830
      3          1           0        0.000000   -1.269462   -0.662830
 ---------------------------------------------------------------------

 SCF Done:  E(UHF) =  -289.966576763     A.U. after   11 cycles

 The electronic state is 3-B1.
 Alpha  occ. eigenvalues --  -68.78732  -6.15547  -4.26484  -4.26266  -4.25590
 Alpha  occ. eigenvalues --   -0.73835  -0.50653  -0.38359  -0.30822
 Alpha virt. eigenvalues --    0.16751   0.17592   0.27319   0.36008   0.36471
 Alpha virt. eigenvalues --    0.36893   1.16115   1.22042
  Beta  occ. eigenvalues --  -68.77555  -6.13807  -4.24731  -4.23923  -4.23508
  Beta  occ. eigenvalues --   -0.62866  -0.48078
  Beta virt. eigenvalues --    0.02307   0.07007   0.20925   0.21442   0.31233
  Beta virt. eigenvalues --    0.40583   0.44137   0.45042   1.17050   1.23305

 Mulliken atomic charges:
              1
     1  Si   0.284311
     2  H   -0.142155
     3  H   -0.142155
 Sum of Mulliken atomic charges =   0.00000

 Dipole moment (field-independent basis, Debye):
    X=              0.0000    Y=              0.0000    Z=              0.3382  Tot=              0.3382
 Quadrupole moment (field-independent basis, Debye-Ang):
   XX=            -16.5038   YY=            -15.7281   ZZ=            -15.2164
   XY=              0.0000   XZ=              0.0000   YZ=              0.0000

 Normal termination of Gaussian 09 at Wed May 26 14:59:29 2021.
