 Gaussian 09, Revision B.01,
 Gaussian 09:  EM64L-G09RevB.01 12-Aug-2010

 -----------
 #P HF/6-31G
 -----------

 ----
 SiH4
 ----
 Symbolic Z-matrix:
 Charge =  0 Multiplicity = 1

                         Standard orientation:
 ---------------------------------------------------------------------
 Center     Atomic      Atomic             Coordinates (Angstroms)
 Number     Number       Type             X           Y           Z
 ---------------------------------------------------------------------
      1         14           0        0.000000    0.000000    0.000000
      2          1           0        0.852576    0.852576    0.852576
      3          1           0       -0.852576   -0.852576    0.852576
      4          1           0       -0.852576    0.852576   -0.852576
      5          1           0        0.852576   -0.852576   -0.852576
 ---------------------------------------------------------------------

 SCF Done:  E(RHF) =  -291.173603161     A.U. after    8 cycles

 The electronic state is 1-A1.
 Alpha  occ. eigenvalues --  -68.77381  -6.14408  -4.24883  -4.24883  -4.24883
 Alpha  occ. eigenvalues --   -0.74730  -0.48341  -0.48341  -0.48341
 Alpha virt. eigenvalues --    0.16924   0.16924   0.16924   0.27192   0.34127
 Alpha virt. eigenvalues --    0.38464   0.38464   0.38464   1.22067   1.22135
 Alpha virt. eigenvalues --    1.22135   1.22135

 Mulliken atomic charges:
              1
     1  Si   0.733183
     2  H   -0.183296
     3  H   -0.183296
     4  H   -0.183296
     5  H   -0.183296
 Sum of Mulliken atomic charges =   0.00000

 Dipole moment (field-independent basis, Debye):
    X=              0.0000    Y=              0.0000    Z=              0.0000  Tot=              0.0000
 Quadrupole moment (field-independent basis, Debye-Ang):
   XX=            -17.2051   YY=            -17.2051   ZZ=            -17.2051
   XY=              0.0000   XZ=              0.0000   YZ=              0.0000

 Normal termination of Gaussian 09 at Wed May 26 15:01:28 2021.
