 Gaussian 09, Revision B.01,
 Gaussian 09:  EM64L-G09RevB.01 12-Aug-2010

 -----------
 #P HF/6-31G
 -----------

 ---
 SO2
 ---
 Symbolic Z-matrix:
 Charge =  0 Multiplicity = 1

                         Standard orientation:
 ---------------------------------------------------------------------
 Center     Atomic      Atomic             Coordinates (Angstroms)
 Number     Number       Type             X           Y           Z
 ---------------------------------------------------------------------
      1         16           0        0.000000    0.000000    0.362031
      2          8           0        0.000000    1.232565   -0.362031
      3          8           0        0.000000   -1.232565   -0.362031
 ---------------------------------------------------------------------

 SCF Done:  E(RHF) =  -546.902552469     A.U. after   11 cycles

 The electronic state is 1-A1.
 Alpha  occ. eigenvalues --  -92.22351 -20.64663 -20.64659  -9.23916  -6.92181
 Alpha  occ. eigenvalues --   -6.91470  -6.91439  -1.57143  -1.44090  -0.89059
 Alpha  occ. eigenvalues --   -0.71804  -0.69505  -0.69273  -0.54662  -0.50402
 Alpha  occ. eigenvalues --   -0.48774
 Alpha virt. eigenvalues --   -0.02027   0.20250   0.21238   0.37048   0.41115
 Alpha virt. eigenvalues --    0.51197   0.63295   1.11575   1.14957   1.18333
 Alpha virt. eigenvalues --    1.19890   1.23502   1.31605   1.69172   1.71087

 Mulliken atomic charges:
              1
     1  S    1.277804
     2  O   -0.638902
     3  O   -0.638902
 Sum of Mulliken atomic charges =   0.00000

 Dipole moment (field-independent basis, Debye):
    X=              0.0000    Y=              0.0000    Z=              2.6903  Tot=              2.6903
 Quadrupole moment (field-independent basis, Debye-Ang):
   XX=            -20.7238   YY=            -31.0592   ZZ=            -23.6646
   XY=              0.0000   XZ=              0.0000   YZ=              0.0000

 Normal termination of Gaussian 09 at Wed May 26 15:03:08 2021.
